 title ="FMBEM model and results"
 Variables = "x","y","z","phi","q"
 zone t="model", n=      326, e=     648    , f=fepoint, et=triangle
          -0.55635101E+00           0.58919102E+00           0.58594102E+00           0.10000000E+01           0.97304755E+00
          -0.32187501E+00           0.66955602E+00           0.66939598E+00           0.10000000E+01           0.97470332E+00
          -0.40719599E+00           0.73974198E+00           0.53570098E+00           0.10000000E+01           0.98173122E+00
          -0.40682399E+00           0.53626698E+00           0.73953497E+00           0.10000000E+01           0.98159595E+00
          -0.55009502E+00           0.71462202E+00           0.43210000E+00           0.10000000E+01           0.97730773E+00
          -0.72386098E+00           0.55385703E+00           0.41142201E+00           0.10000000E+01           0.97715330E+00
          -0.67539197E+00           0.67247301E+00           0.30269799E+00           0.10000000E+01           0.98154256E+00
          -0.90096903E+00           0.00000000E+00           0.43388399E+00           0.10000000E+01           0.97355048E+00
          -0.78183103E+00           0.00000000E+00           0.62348998E+00           0.10000000E+01           0.97306645E+00
          -0.81879598E+00           0.22262000E+00           0.52916402E+00           0.10000000E+01           0.97420718E+00
           0.00000000E+00           0.78183103E+00           0.62348998E+00           0.10000000E+01           0.97298361E+00
           0.00000000E+00           0.90096903E+00           0.43388399E+00           0.10000000E+01           0.97332537E+00
          -0.22286400E+00           0.81871802E+00           0.52918100E+00           0.10000000E+01           0.97691045E+00
          -0.62348998E+00           0.00000000E+00           0.78183103E+00           0.10000000E+01           0.97292664E+00
          -0.43388399E+00           0.00000000E+00           0.90096903E+00           0.10000000E+01           0.97340070E+00
          -0.52911299E+00           0.22273500E+00           0.81879902E+00           0.10000000E+01           0.97406624E+00
          -0.78183103E+00           0.62348998E+00           0.00000000E+00           0.10000000E+01           0.97291798E+00
          -0.90096903E+00           0.43388399E+00           0.00000000E+00           0.10000000E+01           0.97326106E+00
          -0.81886500E+00           0.52896601E+00           0.22284099E+00           0.10000000E+01           0.97686303E+00
          -0.43388399E+00           0.90096903E+00           0.00000000E+00           0.10000000E+01           0.97332804E+00
          -0.62348998E+00           0.78183103E+00           0.00000000E+00           0.10000000E+01           0.97300382E+00
          -0.52929902E+00           0.81862599E+00           0.22292200E+00           0.10000000E+01           0.97416258E+00
           0.00000000E+00           0.43388399E+00           0.90096903E+00           0.10000000E+01           0.97321602E+00
           0.00000000E+00           0.62348998E+00           0.78183103E+00           0.10000000E+01           0.97289037E+00
          -0.22278000E+00           0.52906400E+00           0.81882000E+00           0.10000000E+01           0.97687055E+00
           0.00000000E+00           0.97492802E+00           0.22252101E+00           0.10000000E+01           0.96722115E+00
           0.00000000E+00           0.10000000E+01           0.00000000E+00           0.10000000E+01           0.94283600E+00
          -0.24131100E+00           0.93994600E+00           0.24139400E+00           0.10000000E+01           0.96934362E+00
          -0.22252101E+00           0.97492802E+00           0.00000000E+00           0.10000000E+01           0.96722709E+00
          -0.22252101E+00           0.00000000E+00           0.97492802E+00           0.10000000E+01           0.96731388E+00
           0.00000000E+00           0.00000000E+00           0.10000000E+01           0.10000000E+01           0.94289077E+00
          -0.24125600E+00           0.24104799E+00           0.94004899E+00           0.10000000E+01           0.96939644E+00
           0.00000000E+00           0.22252101E+00           0.97492802E+00           0.10000000E+01           0.96723323E+00
          -0.10000000E+01           0.00000000E+00           0.00000000E+00           0.10000000E+01           0.94285225E+00
          -0.97492802E+00           0.00000000E+00           0.22252101E+00           0.10000000E+01           0.96731627E+00
          -0.94003099E+00           0.24110501E+00           0.24126799E+00           0.10000000E+01           0.96953677E+00
          -0.97492802E+00           0.22252101E+00           0.00000000E+00           0.10000000E+01           0.96726209E+00
          -0.71195400E+00           0.43653899E+00           0.55005002E+00           0.10000000E+01           0.97474192E+00
          -0.67283303E+00           0.30746701E+00           0.67287499E+00           0.10000000E+01           0.97881197E+00
          -0.54694200E+00           0.43550301E+00           0.71497601E+00           0.10000000E+01           0.97812570E+00
          -0.84204000E+00           0.38306299E+00           0.37978101E+00           0.10000000E+01           0.97960358E+00
          -0.37983400E+00           0.84190398E+00           0.38330701E+00           0.10000000E+01           0.98138716E+00
          -0.37972501E+00           0.38309401E+00           0.84205198E+00           0.10000000E+01           0.98150770E+00
          -0.13871600E+00           0.70017701E+00           0.70036399E+00           0.10000000E+01           0.97731135E+00
          -0.70024002E+00           0.13858700E+00           0.70032698E+00           0.10000000E+01           0.98004373E+00
          -0.70038098E+00           0.70012701E+00           0.13888700E+00           0.10000000E+01           0.97993850E+00
          -0.90560299E+00           0.17305100E+00           0.38721600E+00           0.10000000E+01           0.98281720E+00
          -0.90565503E+00           0.38703400E+00           0.17318900E+00           0.10000000E+01           0.98286977E+00
          -0.38733801E+00           0.90547800E+00           0.17342100E+00           0.10000000E+01           0.98247468E+00
          -0.17331600E+00           0.90551299E+00           0.38730401E+00           0.10000000E+01           0.98249486E+00
          -0.17327800E+00           0.38706899E+00           0.90562302E+00           0.10000000E+01           0.98247840E+00
          -0.38721800E+00           0.17313500E+00           0.90558600E+00           0.10000000E+01           0.98258464E+00
          -0.66948199E+00          -0.66943800E+00           0.32194200E+00           0.10000000E+01           0.97470873E+00
          -0.58917397E+00          -0.58592701E+00           0.55638498E+00           0.10000000E+01           0.97305653E+00
          -0.73972303E+00          -0.53571701E+00           0.40720701E+00           0.10000000E+01           0.98171463E+00
          -0.53622299E+00          -0.73954397E+00           0.40686500E+00           0.10000000E+01           0.98160702E+00
          -0.71462500E+00          -0.43208000E+00           0.55010802E+00           0.10000000E+01           0.97731073E+00
          -0.55383199E+00          -0.41144100E+00           0.72386998E+00           0.10000000E+01           0.97716910E+00
          -0.67245501E+00          -0.30268201E+00           0.67541701E+00           0.10000000E+01           0.98155231E+00
          -0.90096903E+00          -0.43388399E+00           0.00000000E+00           0.10000000E+01           0.97335397E+00
          -0.78183103E+00          -0.62348998E+00           0.00000000E+00           0.10000000E+01           0.97301012E+00
          -0.81867498E+00          -0.52926499E+00           0.22282401E+00           0.10000000E+01           0.97689728E+00
           0.00000000E+00          -0.90096903E+00           0.43388399E+00           0.10000000E+01           0.97340398E+00
           0.00000000E+00          -0.78183103E+00           0.62348998E+00           0.10000000E+01           0.97316713E+00
          -0.22270600E+00          -0.81881303E+00           0.52910602E+00           0.10000000E+01           0.97406154E+00
          -0.62348998E+00          -0.78183103E+00           0.00000000E+00           0.10000000E+01           0.97288597E+00
          -0.43388399E+00          -0.90096903E+00           0.00000000E+00           0.10000000E+01           0.97321597E+00
          -0.52899599E+00          -0.81884903E+00           0.22282700E+00           0.10000000E+01           0.97686642E+00
          -0.52890700E+00          -0.22292300E+00           0.81887901E+00           0.10000000E+01           0.97688969E+00
          -0.81863201E+00          -0.22289500E+00           0.52930403E+00           0.10000000E+01           0.97419607E+00
           0.00000000E+00          -0.62348998E+00           0.78183103E+00           0.10000000E+01           0.97321069E+00
           0.00000000E+00          -0.43388399E+00           0.90096903E+00           0.10000000E+01           0.97346456E+00
          -0.22254600E+00          -0.52922797E+00           0.81877398E+00           0.10000000E+01           0.97420229E+00
          -0.24111700E+00          -0.24113700E+00           0.94006199E+00           0.10000000E+01           0.96954407E+00
           0.00000000E+00          -0.22252101E+00           0.97492802E+00           0.10000000E+01           0.96732498E+00
          -0.97492802E+00          -0.22252101E+00           0.00000000E+00           0.10000000E+01           0.96723657E+00
          -0.93998498E+00          -0.24124900E+00           0.24130200E+00           0.10000000E+01           0.96935161E+00
          -0.22252101E+00          -0.97492802E+00           0.00000000E+00           0.10000000E+01           0.96723968E+00
           0.00000000E+00          -0.10000000E+01           0.00000000E+00           0.10000000E+01           0.94287075E+00
          -0.24112500E+00          -0.94004899E+00           0.24117801E+00           0.10000000E+01           0.96938944E+00
           0.00000000E+00          -0.97492802E+00           0.22252101E+00           0.10000000E+01           0.96727260E+00
          -0.30745900E+00          -0.67289901E+00           0.67281199E+00           0.10000000E+01           0.97881344E+00
          -0.43650800E+00          -0.55007303E+00           0.71195501E+00           0.10000000E+01           0.97474451E+00
          -0.43551299E+00          -0.71496099E+00           0.54695499E+00           0.10000000E+01           0.97813352E+00
          -0.38303199E+00          -0.37981400E+00           0.84203798E+00           0.10000000E+01           0.97961028E+00
          -0.84191298E+00          -0.38329601E+00           0.37982801E+00           0.10000000E+01           0.98137902E+00
          -0.38309601E+00          -0.84203601E+00           0.37975800E+00           0.10000000E+01           0.98151266E+00
          -0.13858999E+00          -0.70029598E+00           0.70027000E+00           0.10000000E+01           0.98005693E+00
          -0.70011097E+00          -0.13884500E+00           0.70040399E+00           0.10000000E+01           0.97996196E+00
          -0.70013797E+00          -0.70037401E+00           0.13886800E+00           0.10000000E+01           0.97729678E+00
          -0.90547401E+00          -0.17339601E+00           0.38736299E+00           0.10000000E+01           0.98250558E+00
          -0.90551198E+00          -0.38728899E+00           0.17336400E+00           0.10000000E+01           0.98246094E+00
          -0.17313200E+00          -0.38718700E+00           0.90559798E+00           0.10000000E+01           0.98277231E+00
          -0.38705400E+00          -0.17325801E+00           0.90563101E+00           0.10000000E+01           0.98289443E+00
          -0.38709199E+00          -0.90560901E+00           0.17329700E+00           0.10000000E+01           0.98248185E+00
          -0.17315200E+00          -0.90560901E+00           0.38715801E+00           0.10000000E+01           0.98257238E+00
           0.43137300E+00           0.71368301E+00           0.55188203E+00           0.10000000E+01           0.97571190E+00
           0.41052699E+00           0.55212098E+00           0.72569299E+00           0.10000000E+01           0.97879016E+00
           0.57739800E+00           0.57726598E+00           0.57738698E+00           0.10000000E+01           0.97356409E+00
           0.71382701E+00           0.55169499E+00           0.43137401E+00           0.10000000E+01           0.97572529E+00
           0.55230802E+00           0.72552699E+00           0.41056800E+00           0.10000000E+01           0.97878997E+00
           0.55180001E+00           0.43125200E+00           0.71381998E+00           0.10000000E+01           0.97571101E+00
           0.72561699E+00           0.41040200E+00           0.55231303E+00           0.10000000E+01           0.97878607E+00
           0.30265701E+00           0.67247701E+00           0.67540598E+00           0.10000000E+01           0.98130784E+00
           0.67268997E+00           0.67520100E+00           0.30264100E+00           0.10000000E+01           0.98131418E+00
           0.67526901E+00           0.30249700E+00           0.67268598E+00           0.10000000E+01           0.98129958E+00
           0.78183103E+00           0.62348998E+00           0.00000000E+00           0.10000000E+01           0.97303663E+00
           0.81880403E+00           0.52902198E+00           0.22294100E+00           0.10000000E+01           0.97437584E+00
           0.90096903E+00           0.43388399E+00           0.00000000E+00           0.10000000E+01           0.97351584E+00
           0.43388399E+00           0.90096903E+00           0.00000000E+00           0.10000000E+01           0.97341252E+00
           0.52918297E+00           0.81872600E+00           0.22283000E+00           0.10000000E+01           0.97687854E+00
           0.62348998E+00           0.78183103E+00           0.00000000E+00           0.10000000E+01           0.97293051E+00
           0.22291400E+00           0.81862903E+00           0.52929699E+00           0.10000000E+01           0.97434635E+00
           0.22279200E+00           0.52896500E+00           0.81888002E+00           0.10000000E+01           0.97686198E+00
           0.90096903E+00           0.00000000E+00           0.43388399E+00           0.10000000E+01           0.97344029E+00
           0.81877798E+00           0.22258601E+00           0.52920902E+00           0.10000000E+01           0.97690766E+00
           0.78183103E+00           0.00000000E+00           0.62348998E+00           0.10000000E+01           0.97295018E+00
           0.62348998E+00           0.00000000E+00           0.78183103E+00           0.10000000E+01           0.97303677E+00
           0.52913803E+00           0.22265799E+00           0.81880200E+00           0.10000000E+01           0.97439125E+00
           0.43388399E+00           0.00000000E+00           0.90096903E+00           0.10000000E+01           0.97352331E+00
           0.22252101E+00           0.00000000E+00           0.97492802E+00           0.10000000E+01           0.96731911E+00
           0.24118300E+00           0.24111401E+00           0.94005001E+00           0.10000000E+01           0.96947885E+00
           0.97492802E+00           0.22252101E+00           0.00000000E+00           0.10000000E+01           0.96731935E+00
           0.94003099E+00           0.24105300E+00           0.24131900E+00           0.10000000E+01           0.96948727E+00
           0.10000000E+01           0.00000000E+00           0.00000000E+00           0.10000000E+01           0.94287919E+00
           0.24132200E+00           0.93997103E+00           0.24128500E+00           0.10000000E+01           0.96945059E+00
           0.22252101E+00           0.97492802E+00           0.00000000E+00           0.10000000E+01           0.96729791E+00
           0.97492802E+00           0.00000000E+00           0.22252101E+00           0.10000000E+01           0.96730540E+00
           0.37974900E+00           0.38309199E+00           0.84204102E+00           0.10000000E+01           0.97953204E+00
           0.38327700E+00           0.84192502E+00           0.37981799E+00           0.10000000E+01           0.97955668E+00
           0.84201699E+00           0.37959799E+00           0.38329700E+00           0.10000000E+01           0.97955970E+00
           0.70031500E+00           0.70020503E+00           0.13882400E+00           0.10000000E+01           0.97990839E+00
           0.13887399E+00           0.70011199E+00           0.70039803E+00           0.10000000E+01           0.97988454E+00
           0.70024902E+00           0.13869201E+00           0.70029700E+00           0.10000000E+01           0.97994763E+00
           0.38717201E+00           0.17311600E+00           0.90561002E+00           0.10000000E+01           0.98265682E+00
           0.17318100E+00           0.38704801E+00           0.90565002E+00           0.10000000E+01           0.98277756E+00
           0.17340100E+00           0.90548301E+00           0.38733801E+00           0.10000000E+01           0.98259503E+00
           0.38727400E+00           0.90552402E+00           0.17332500E+00           0.10000000E+01           0.98278556E+00
           0.90556198E+00           0.17312500E+00           0.38727999E+00           0.10000000E+01           0.98282287E+00
           0.90559602E+00           0.38707200E+00           0.17341299E+00           0.10000000E+01           0.98262811E+00
          -0.66966897E+00           0.66933399E+00          -0.32176900E+00           0.10000000E+01           0.97470308E+00
          -0.58938801E+00           0.58584702E+00          -0.55624098E+00           0.10000000E+01           0.97306980E+00
          -0.73990297E+00           0.53561199E+00          -0.40701699E+00           0.10000000E+01           0.98170149E+00
          -0.53649801E+00           0.73939699E+00          -0.40677100E+00           0.10000000E+01           0.98165745E+00
          -0.71482801E+00           0.43198699E+00          -0.54991698E+00           0.10000000E+01           0.97729607E+00
          -0.55403900E+00           0.41137299E+00          -0.72375000E+00           0.10000000E+01           0.97711076E+00
          -0.67269301E+00           0.30258399E+00          -0.67522401E+00           0.10000000E+01           0.98152212E+00
           0.00000000E+00           0.62348998E+00          -0.78183103E+00           0.10000000E+01           0.97302059E+00
           0.00000000E+00           0.43388399E+00          -0.90096903E+00           0.10000000E+01           0.97349877E+00
          -0.22296500E+00           0.52916002E+00          -0.81870401E+00           0.10000000E+01           0.97425936E+00
          -0.78183103E+00           0.00000000E+00          -0.62348998E+00           0.10000000E+01           0.97275554E+00
          -0.90096903E+00           0.00000000E+00          -0.43388399E+00           0.10000000E+01           0.97332251E+00
          -0.81882697E+00           0.22276001E+00          -0.52906001E+00           0.10000000E+01           0.97417219E+00
          -0.81882101E+00           0.52913201E+00          -0.22260199E+00           0.10000000E+01           0.97691322E+00
          -0.43388399E+00           0.00000000E+00          -0.90096903E+00           0.10000000E+01           0.97332811E+00
          -0.62348998E+00           0.00000000E+00          -0.78183103E+00           0.10000000E+01           0.97277017E+00
          -0.52919602E+00           0.22285300E+00          -0.81871098E+00           0.10000000E+01           0.97688033E+00
           0.00000000E+00           0.90096903E+00          -0.43388399E+00           0.10000000E+01           0.97338346E+00
           0.00000000E+00           0.78183103E+00          -0.62348998E+00           0.10000000E+01           0.97292458E+00
          -0.22291701E+00           0.81876898E+00          -0.52908498E+00           0.10000000E+01           0.97397229E+00
          -0.52917999E+00           0.81874800E+00          -0.22276300E+00           0.10000000E+01           0.97690595E+00
           0.00000000E+00           0.22252101E+00          -0.97492802E+00           0.10000000E+01           0.96728163E+00
           0.00000000E+00           0.00000000E+00          -0.10000000E+01           0.10000000E+01           0.94282878E+00
          -0.24134500E+00           0.24123900E+00          -0.93997699E+00           0.10000000E+01           0.96951031E+00
          -0.22252101E+00           0.00000000E+00          -0.97492802E+00           0.10000000E+01           0.96724776E+00
           0.00000000E+00           0.97492802E+00          -0.22252101E+00           0.10000000E+01           0.96726779E+00
          -0.24132800E+00           0.94000000E+00          -0.24116600E+00           0.10000000E+01           0.96939909E+00
          -0.94006097E+00           0.24115799E+00          -0.24109900E+00           0.10000000E+01           0.96939260E+00
          -0.97492802E+00           0.00000000E+00          -0.22252101E+00           0.10000000E+01           0.96725490E+00
          -0.43652201E+00           0.71414697E+00          -0.54721302E+00           0.10000000E+01           0.97808877E+00
          -0.43600601E+00           0.54988599E+00          -0.71240699E+00           0.10000000E+01           0.97486036E+00
          -0.30772600E+00           0.67283398E+00          -0.67275500E+00           0.10000000E+01           0.97887417E+00
          -0.84206802E+00           0.38317800E+00          -0.37960401E+00           0.10000000E+01           0.98134935E+00
          -0.38328499E+00           0.84198803E+00          -0.37967399E+00           0.10000000E+01           0.98145677E+00
          -0.38334501E+00           0.37978801E+00          -0.84190702E+00           0.10000000E+01           0.97968709E+00
          -0.70031399E+00           0.13873400E+00          -0.70022398E+00           0.10000000E+01           0.97993948E+00
          -0.70030099E+00           0.70025599E+00          -0.13863800E+00           0.10000000E+01           0.97733645E+00
          -0.13889299E+00           0.70029497E+00          -0.70021099E+00           0.10000000E+01           0.98001979E+00
          -0.90561700E+00           0.17322899E+00          -0.38710400E+00           0.10000000E+01           0.98251811E+00
          -0.90562898E+00           0.38714600E+00          -0.17307299E+00           0.10000000E+01           0.98249566E+00
          -0.17334500E+00           0.90557599E+00          -0.38714799E+00           0.10000000E+01           0.98258846E+00
          -0.38727099E+00           0.90556097E+00          -0.17314599E+00           0.10000000E+01           0.98253071E+00
          -0.17349599E+00           0.38724801E+00          -0.90550202E+00           0.10000000E+01           0.98274364E+00
          -0.38730600E+00           0.17332700E+00          -0.90551001E+00           0.10000000E+01           0.98287370E+00
           0.66946501E+00           0.32184899E+00          -0.66949999E+00           0.10000000E+01           0.97470475E+00
           0.53575200E+00           0.40709499E+00          -0.73975998E+00           0.10000000E+01           0.98171895E+00
           0.58593899E+00           0.55632597E+00          -0.58921701E+00           0.10000000E+01           0.97305631E+00
           0.73956501E+00           0.40680701E+00          -0.53623801E+00           0.10000000E+01           0.98160537E+00
           0.43212399E+00           0.54998302E+00          -0.71469402E+00           0.10000000E+01           0.97732267E+00
           0.41143399E+00           0.72377002E+00          -0.55396599E+00           0.10000000E+01           0.97715989E+00
           0.30267501E+00           0.67526001E+00          -0.67261600E+00           0.10000000E+01           0.98155576E+00
           0.52918297E+00           0.81873798E+00          -0.22278900E+00           0.10000000E+01           0.97419715E+00
           0.43388399E+00           0.00000000E+00          -0.90096903E+00           0.10000000E+01           0.97320876E+00
           0.52929997E+00           0.22271200E+00          -0.81868201E+00           0.10000000E+01           0.97690945E+00
           0.62348998E+00           0.00000000E+00          -0.78183103E+00           0.10000000E+01           0.97311545E+00
           0.81883597E+00           0.52908498E+00          -0.22266500E+00           0.10000000E+01           0.97407492E+00
           0.22298500E+00           0.52910298E+00          -0.81873602E+00           0.10000000E+01           0.97419767E+00
           0.78183103E+00           0.00000000E+00          -0.62348998E+00           0.10000000E+01           0.97313947E+00
           0.81887501E+00           0.22275500E+00          -0.52898902E+00           0.10000000E+01           0.97688793E+00
           0.90096903E+00           0.00000000E+00          -0.43388399E+00           0.10000000E+01           0.97323899E+00
           0.22285800E+00           0.81876397E+00          -0.52911502E+00           0.10000000E+01           0.97689147E+00
           0.94008797E+00           0.24109700E+00          -0.24105500E+00           0.10000000E+01           0.96941582E+00
           0.24138300E+00           0.24118701E+00          -0.93998098E+00           0.10000000E+01           0.96936824E+00
           0.22252101E+00           0.00000000E+00          -0.97492802E+00           0.10000000E+01           0.96718890E+00
           0.24136400E+00           0.94001800E+00          -0.24105801E+00           0.10000000E+01           0.96953775E+00
           0.97492802E+00           0.00000000E+00          -0.22252101E+00           0.10000000E+01           0.96724720E+00
           0.55006802E+00           0.71191698E+00          -0.43657801E+00           0.10000000E+01           0.97476375E+00
           0.71497703E+00           0.54692000E+00          -0.43553099E+00           0.10000000E+01           0.97812540E+00
           0.67290002E+00           0.67279500E+00          -0.30749500E+00           0.10000000E+01           0.97881836E+00
           0.84206498E+00           0.37970600E+00          -0.38308501E+00           0.10000000E+01           0.98150259E+00
           0.38334799E+00           0.37969601E+00          -0.84194702E+00           0.10000000E+01           0.98137989E+00
           0.37980899E+00           0.84198803E+00          -0.38314900E+00           0.10000000E+01           0.97962697E+00
           0.70034301E+00           0.70021898E+00          -0.13861100E+00           0.10000000E+01           0.98003502E+00
           0.13881600E+00           0.70028102E+00          -0.70024002E+00           0.10000000E+01           0.97998128E+00
           0.70041901E+00           0.13873500E+00          -0.70011902E+00           0.10000000E+01           0.97733514E+00
           0.38736001E+00           0.17319401E+00          -0.90551198E+00           0.10000000E+01           0.98248065E+00
           0.17335901E+00           0.38716900E+00          -0.90556300E+00           0.10000000E+01           0.98253195E+00
           0.90562999E+00           0.38711599E+00          -0.17313600E+00           0.10000000E+01           0.98259602E+00
           0.17335100E+00           0.90559500E+00          -0.38710001E+00           0.10000000E+01           0.98287285E+00
           0.90564400E+00           0.17320500E+00          -0.38705099E+00           0.10000000E+01           0.98249585E+00
           0.38732201E+00           0.90553302E+00          -0.17318000E+00           0.10000000E+01           0.98279787E+00
          -0.55177802E+00          -0.43146801E+00          -0.71370602E+00           0.10000000E+01           0.97570156E+00
          -0.57726997E+00          -0.57749897E+00          -0.57728302E+00           0.10000000E+01           0.97354865E+00
          -0.72560799E+00          -0.41064700E+00          -0.55214202E+00           0.10000000E+01           0.97878251E+00
          -0.43121001E+00          -0.71390998E+00          -0.55171603E+00           0.10000000E+01           0.97569240E+00
          -0.41044101E+00          -0.55237299E+00          -0.72555000E+00           0.10000000E+01           0.97878060E+00
          -0.71371502E+00          -0.55192298E+00          -0.43126899E+00           0.10000000E+01           0.97569406E+00
          -0.55216801E+00          -0.72572303E+00          -0.41041201E+00           0.10000000E+01           0.97877108E+00
          -0.67532402E+00          -0.30277300E+00          -0.67250699E+00           0.10000000E+01           0.98130526E+00
          -0.30247700E+00          -0.67273700E+00          -0.67522800E+00           0.10000000E+01           0.98127330E+00
          -0.67257398E+00          -0.67537701E+00          -0.30250600E+00           0.10000000E+01           0.98127473E+00
          -0.81882298E+00          -0.22294600E+00          -0.52898502E+00           0.10000000E+01           0.97684171E+00
           0.00000000E+00          -0.78183103E+00          -0.62348998E+00           0.10000000E+01           0.97279394E+00
           0.00000000E+00          -0.90096903E+00          -0.43388399E+00           0.10000000E+01           0.97336942E+00
          -0.22268300E+00          -0.81885397E+00          -0.52904701E+00           0.10000000E+01           0.97436000E+00
           0.00000000E+00          -0.43388399E+00          -0.90096903E+00           0.10000000E+01           0.97331340E+00
           0.00000000E+00          -0.62348998E+00          -0.78183103E+00           0.10000000E+01           0.97277014E+00