 title ="FMBEM model and results"
 Variables = "x","y","z","phi","q"
 zone t="model", n=     8138, e=   16252    , f=fepoint, et=triangle
          -0.24620194E+00          -0.43412047E-01           0.18000000E+02           0.10000000E+01           0.44308859E+01
           0.11102230E-15          -0.13596310E-31           0.19000000E+02           0.10000000E+01           0.46605280E+01
          -0.25000000E+00           0.30616169E-16           0.18000000E+02           0.10000000E+01           0.44182851E+01
          -0.23492316E+00          -0.85505033E-01           0.18000000E+02           0.10000000E+01           0.45387537E+01
          -0.21650635E+00          -0.12500000E+00           0.18000000E+02           0.10000000E+01           0.46954901E+01
          -0.19151110E+00          -0.16069690E+00           0.18000000E+02           0.10000000E+01           0.48390875E+01
          -0.16069690E+00          -0.19151110E+00           0.18000000E+02           0.10000000E+01           0.48931444E+01
          -0.12500000E+00          -0.21650635E+00           0.18000000E+02           0.10000000E+01           0.47985994E+01
          -0.85505033E-01          -0.23492316E+00           0.18000000E+02           0.10000000E+01           0.46299373E+01
          -0.43412047E-01          -0.24620194E+00           0.18000000E+02           0.10000000E+01           0.44879950E+01
           0.15308085E-16          -0.25000000E+00           0.18000000E+02           0.10000000E+01           0.44182851E+01
           0.43412047E-01          -0.24620194E+00           0.18000000E+02           0.10000000E+01           0.44308859E+01
           0.85505033E-01          -0.23492316E+00           0.18000000E+02           0.10000000E+01           0.45387537E+01
           0.12500000E+00          -0.21650635E+00           0.18000000E+02           0.10000000E+01           0.46954901E+01
           0.16069690E+00          -0.19151110E+00           0.18000000E+02           0.10000000E+01           0.48390875E+01
           0.19151110E+00          -0.16069690E+00           0.18000000E+02           0.10000000E+01           0.48931444E+01
           0.21650635E+00          -0.12500000E+00           0.18000000E+02           0.10000000E+01           0.47985994E+01
           0.23492316E+00          -0.85505033E-01           0.18000000E+02           0.10000000E+01           0.46299373E+01
           0.24620194E+00          -0.43412047E-01           0.18000000E+02           0.10000000E+01           0.44879950E+01
           0.25000000E+00           0.00000000E+00           0.18000000E+02           0.10000000E+01           0.44182851E+01
           0.24620194E+00           0.43412047E-01           0.18000000E+02           0.10000000E+01           0.44308859E+01
           0.23492316E+00           0.85505033E-01           0.18000000E+02           0.10000000E+01           0.45387537E+01
           0.21650635E+00           0.12500000E+00           0.18000000E+02           0.10000000E+01           0.46954901E+01
           0.19151110E+00           0.16069690E+00           0.18000000E+02           0.10000000E+01           0.48390875E+01
           0.16069690E+00           0.19151110E+00           0.18000000E+02           0.10000000E+01           0.48931444E+01
           0.12500000E+00           0.21650635E+00           0.18000000E+02           0.10000000E+01           0.47985994E+01
           0.85505033E-01           0.23492316E+00           0.18000000E+02           0.10000000E+01           0.46299373E+01
           0.43412047E-01           0.24620194E+00           0.18000000E+02           0.10000000E+01           0.44879950E+01
           0.15308085E-16           0.25000000E+00           0.18000000E+02           0.10000000E+01           0.44182851E+01
          -0.43412047E-01           0.24620194E+00           0.18000000E+02           0.10000000E+01           0.44308859E+01
          -0.85505033E-01           0.23492316E+00           0.18000000E+02           0.10000000E+01           0.45387537E+01
          -0.12500000E+00           0.21650635E+00           0.18000000E+02           0.10000000E+01           0.46954901E+01
          -0.16069690E+00           0.19151110E+00           0.18000000E+02           0.10000000E+01           0.48390875E+01
          -0.19151110E+00           0.16069690E+00           0.18000000E+02           0.10000000E+01           0.48931444E+01
          -0.21650635E+00           0.12500000E+00           0.18000000E+02           0.10000000E+01           0.47985994E+01
          -0.23492316E+00           0.85505033E-01           0.18000000E+02           0.10000000E+01           0.46299373E+01
          -0.24620194E+00           0.43412047E-01           0.18000000E+02           0.10000000E+01           0.44879950E+01
          -0.24620194E+00           0.43412047E-01           0.17100000E+02           0.10000000E+01           0.44148810E+01
          -0.23492316E+00           0.85505033E-01           0.17100000E+02           0.10000000E+01           0.46056958E+01
          -0.21650635E+00           0.12500000E+00           0.17100000E+02           0.10000000E+01           0.48595083E+01
          -0.21650635E+00           0.12500000E+00           0.16200000E+02           0.10000000E+01           0.48842953E+01
          -0.19151110E+00           0.16069690E+00           0.16200000E+02           0.10000000E+01           0.50816881E+01
          -0.19151110E+00           0.16069690E+00           0.15300000E+02           0.10000000E+01           0.50932561E+01
          -0.16069690E+00           0.19151110E+00           0.15300000E+02           0.10000000E+01           0.50887275E+01
          -0.16069690E+00           0.19151110E+00           0.14400001E+02           0.10000000E+01           0.50959766E+01
          -0.12500000E+00           0.21650635E+00           0.14400001E+02           0.10000000E+01           0.48937220E+01
          -0.12500000E+00           0.21650635E+00           0.13500000E+02           0.10000000E+01           0.48953047E+01
          -0.85505033E-01           0.23492316E+00           0.13500000E+02           0.10000000E+01           0.46405768E+01
          -0.85505033E-01           0.23492316E+00           0.12600000E+02           0.10000000E+01           0.46534395E+01
          -0.43412047E-01           0.24620194E+00           0.12600000E+02           0.10000000E+01           0.44625289E+01
          -0.43412047E-01           0.24620194E+00           0.11700000E+02           0.10000000E+01           0.44550547E+01
           0.15308085E-16           0.25000000E+00           0.11700000E+02           0.10000000E+01           0.43843000E+01
           0.15308085E-16           0.25000000E+00           0.10800000E+02           0.10000000E+01           0.43743211E+01
           0.43412047E-01           0.24620194E+00           0.10800000E+02           0.10000000E+01           0.44409735E+01
           0.43412047E-01           0.24620194E+00           0.99000001E+01           0.10000000E+01           0.44401913E+01
           0.85505033E-01           0.23492316E+00           0.99000001E+01           0.10000000E+01           0.46316980E+01
           0.85505033E-01           0.23492316E+00           0.89999998E+01           0.10000000E+01           0.46416142E+01
           0.12500000E+00           0.21650635E+00           0.89999998E+01           0.10000000E+01           0.48962977E+01
           0.12500000E+00           0.21650635E+00           0.81000000E+01           0.10000000E+01           0.49086968E+01
           0.16069690E+00           0.19151110E+00           0.81000000E+01           0.10000000E+01           0.51028139E+01
           0.16069690E+00           0.19151110E+00           0.72000003E+01           0.10000000E+01           0.50995245E+01
           0.19151110E+00           0.16069690E+00           0.72000003E+01           0.10000000E+01           0.50976016E+01
           0.19151110E+00           0.16069690E+00           0.63000000E+01           0.10000000E+01           0.51101035E+01
           0.21650635E+00           0.12500000E+00           0.63000000E+01           0.10000000E+01           0.49144188E+01
           0.21650635E+00           0.12500000E+00           0.54000002E+01           0.10000000E+01           0.49080681E+01
           0.23492316E+00           0.85505033E-01           0.54000002E+01           0.10000000E+01           0.46523027E+01
           0.23492316E+00           0.85505033E-01           0.44999999E+01           0.10000000E+01           0.46368890E+01
           0.24620194E+00           0.43412047E-01           0.44999999E+01           0.10000000E+01           0.44445709E+01
           0.24620194E+00           0.43412047E-01           0.36000001E+01           0.10000000E+01           0.44425936E+01
           0.25000000E+00           0.00000000E+00           0.36000001E+01           0.10000000E+01           0.43752610E+01
           0.25000000E+00           0.00000000E+00           0.27000001E+01           0.10000000E+01           0.43833380E+01
           0.24620194E+00          -0.43412047E-01           0.27000001E+01           0.10000000E+01           0.44548087E+01
           0.24620194E+00          -0.43412047E-01           0.18000001E+01           0.10000000E+01           0.44570194E+01
           0.23492316E+00          -0.85505033E-01           0.18000001E+01           0.10000000E+01           0.46496098E+01
           0.23492316E+00          -0.85505033E-01           0.90000004E+00           0.10000000E+01           0.45557965E+01
           0.21650635E+00          -0.12500000E+00           0.90000004E+00           0.10000000E+01           0.47986683E+01
           0.21650635E+00          -0.12500000E+00           0.00000000E+00           0.10000000E+01           0.39916186E+01
           0.19151110E+00          -0.16069690E+00           0.00000000E+00           0.10000000E+01           0.42573984E+01
           0.23492316E+00          -0.85505033E-01           0.00000000E+00           0.10000000E+01           0.37711728E+01
           0.24620194E+00          -0.43412047E-01           0.90000004E+00           0.10000000E+01           0.43722999E+01
           0.25000000E+00           0.00000000E+00           0.18000001E+01           0.10000000E+01           0.43826379E+01
           0.24620194E+00           0.43412047E-01           0.27000001E+01           0.10000000E+01           0.44448369E+01
           0.23492316E+00           0.85505033E-01           0.36000001E+01           0.10000000E+01           0.46349171E+01
           0.21650635E+00           0.12500000E+00           0.44999999E+01           0.10000000E+01           0.48920589E+01
           0.19151110E+00           0.16069690E+00           0.54000002E+01           0.10000000E+01           0.51023039E+01
           0.16069690E+00           0.19151110E+00           0.63000000E+01           0.10000000E+01           0.51041857E+01
           0.12500000E+00           0.21650635E+00           0.72000003E+01           0.10000000E+01           0.49025751E+01
           0.85505033E-01           0.23492316E+00           0.81000000E+01           0.10000000E+01           0.46538945E+01
           0.43412047E-01           0.24620194E+00           0.89999998E+01           0.10000000E+01           0.44499130E+01
           0.15308085E-16           0.25000000E+00           0.99000001E+01           0.10000000E+01           0.43729148E+01
          -0.43412047E-01           0.24620194E+00           0.10800000E+02           0.10000000E+01           0.44409276E+01
          -0.85505033E-01           0.23492316E+00           0.11700000E+02           0.10000000E+01           0.46462472E+01
          -0.12500000E+00           0.21650635E+00           0.12600000E+02           0.10000000E+01           0.49085251E+01
          -0.16069690E+00           0.19151110E+00           0.13500000E+02           0.10000000E+01           0.50949352E+01
          -0.19151110E+00           0.16069690E+00           0.14400001E+02           0.10000000E+01           0.51024571E+01
          -0.21650635E+00           0.12500000E+00           0.15300000E+02           0.10000000E+01           0.48975394E+01
          -0.23492316E+00           0.85505033E-01           0.16200000E+02           0.10000000E+01           0.46293898E+01
          -0.19151110E+00           0.16069690E+00           0.17100000E+02           0.10000000E+01           0.50475690E+01
          -0.16069690E+00           0.19151110E+00           0.16200000E+02           0.10000000E+01           0.50796992E+01
          -0.12500000E+00           0.21650635E+00           0.15300000E+02           0.10000000E+01           0.48890194E+01
          -0.85505033E-01           0.23492316E+00           0.14400001E+02           0.10000000E+01           0.46387458E+01
          -0.43412047E-01           0.24620194E+00           0.13500000E+02           0.10000000E+01           0.44495781E+01
           0.15308085E-16           0.25000000E+00           0.12600000E+02           0.10000000E+01           0.43873538E+01
           0.43412047E-01           0.24620194E+00           0.11700000E+02           0.10000000E+01           0.44434933E+01
           0.85505033E-01           0.23492316E+00           0.10800000E+02           0.10000000E+01           0.46321860E+01
           0.12500000E+00           0.21650635E+00           0.99000001E+01           0.10000000E+01           0.48864314E+01
           0.16069690E+00           0.19151110E+00           0.89999998E+01           0.10000000E+01           0.50909684E+01
           0.19151110E+00           0.16069690E+00           0.81000000E+01           0.10000000E+01           0.50953041E+01
           0.21650635E+00           0.12500000E+00           0.72000003E+01           0.10000000E+01           0.48982620E+01
           0.23492316E+00           0.85505033E-01           0.63000000E+01           0.10000000E+01           0.46588774E+01
           0.24620194E+00           0.43412047E-01           0.54000002E+01           0.10000000E+01           0.44598619E+01
           0.25000000E+00           0.00000000E+00           0.44999999E+01           0.10000000E+01           0.43770509E+01
           0.24620194E+00          -0.43412047E-01           0.36000001E+01           0.10000000E+01           0.44436860E+01
           0.23492316E+00          -0.85505033E-01           0.27000001E+01           0.10000000E+01           0.46480879E+01
           0.21650635E+00          -0.12500000E+00           0.18000001E+01           0.10000000E+01           0.49037007E+01
           0.19151110E+00          -0.16069690E+00           0.90000004E+00           0.10000000E+01           0.49978687E+01
           0.16069690E+00          -0.19151110E+00           0.00000000E+00           0.10000000E+01           0.45306328E+01
          -0.16069690E+00           0.19151110E+00           0.17100000E+02           0.10000000E+01           0.50249566E+01
          -0.12500000E+00           0.21650635E+00           0.16200000E+02           0.10000000E+01           0.48810674E+01
          -0.85505033E-01           0.23492316E+00           0.15300000E+02           0.10000000E+01           0.46342467E+01
          -0.43412047E-01           0.24620194E+00           0.14400001E+02           0.10000000E+01           0.44472187E+01
           0.15308085E-16           0.25000000E+00           0.13500000E+02           0.10000000E+01           0.43821164E+01
           0.43412047E-01           0.24620194E+00           0.12600000E+02           0.10000000E+01           0.44482675E+01
           0.85505033E-01           0.23492316E+00           0.11700000E+02           0.10000000E+01           0.46347589E+01
           0.12500000E+00           0.21650635E+00           0.10800000E+02           0.10000000E+01           0.48869295E+01
           0.16069690E+00           0.19151110E+00           0.99000001E+01           0.10000000E+01           0.50844215E+01
           0.19151110E+00           0.16069690E+00           0.89999998E+01           0.10000000E+01           0.50862498E+01
           0.21650635E+00           0.12500000E+00           0.81000000E+01           0.10000000E+01           0.48931729E+01
           0.23492316E+00           0.85505033E-01           0.72000003E+01           0.10000000E+01           0.46432319E+01
           0.24620194E+00           0.43412047E-01           0.63000000E+01           0.10000000E+01           0.44669533E+01
           0.25000000E+00           0.00000000E+00           0.54000002E+01           0.10000000E+01           0.43886599E+01
           0.24620194E+00          -0.43412047E-01           0.44999999E+01           0.10000000E+01           0.44451853E+01
           0.23492316E+00          -0.85505033E-01           0.36000001E+01           0.10000000E+01           0.46370843E+01
           0.21650635E+00          -0.12500000E+00           0.27000001E+01           0.10000000E+01           0.49029410E+01
           0.19151110E+00          -0.16069690E+00           0.18000001E+01           0.10000000E+01           0.50979190E+01
           0.16069690E+00          -0.19151110E+00           0.90000004E+00           0.10000000E+01           0.50157067E+01
           0.12500000E+00          -0.21650635E+00           0.00000000E+00           0.10000000E+01           0.48105138E+01
          -0.12500000E+00           0.21650635E+00           0.17100000E+02           0.10000000E+01           0.48195473E+01
          -0.85505033E-01           0.23492316E+00           0.16200000E+02           0.10000000E+01           0.46271006E+01
          -0.43412047E-01           0.24620194E+00           0.15300000E+02           0.10000000E+01           0.44426204E+01
           0.15308085E-16           0.25000000E+00           0.14400001E+02           0.10000000E+01           0.43863433E+01
           0.43412047E-01           0.24620194E+00           0.13500000E+02           0.10000000E+01           0.44507920E+01
           0.85505033E-01           0.23492316E+00           0.12600000E+02           0.10000000E+01           0.46396267E+01
           0.12500000E+00           0.21650635E+00           0.11700000E+02           0.10000000E+01           0.48897230E+01
           0.16069690E+00           0.19151110E+00           0.10800000E+02           0.10000000E+01           0.50853266E+01
           0.19151110E+00           0.16069690E+00           0.99000001E+01           0.10000000E+01           0.50840135E+01
           0.21650635E+00           0.12500000E+00           0.89999998E+01           0.10000000E+01           0.48864548E+01
           0.23492316E+00           0.85505033E-01           0.81000000E+01           0.10000000E+01           0.46380584E+01
           0.24620194E+00           0.43412047E-01           0.72000003E+01           0.10000000E+01           0.44516729E+01
           0.25000000E+00           0.00000000E+00           0.63000000E+01           0.10000000E+01           0.43914714E+01
           0.24620194E+00          -0.43412047E-01           0.54000002E+01           0.10000000E+01           0.44495839E+01
           0.23492316E+00          -0.85505033E-01           0.44999999E+01           0.10000000E+01           0.46385843E+01
           0.21650635E+00          -0.12500000E+00           0.36000001E+01           0.10000000E+01           0.48919598E+01
           0.19151110E+00          -0.16069690E+00           0.27000001E+01           0.10000000E+01           0.50959909E+01
           0.16069690E+00          -0.19151110E+00           0.18000001E+01           0.10000000E+01           0.50937416E+01
           0.12500000E+00          -0.21650635E+00           0.90000004E+00           0.10000000E+01           0.48309546E+01
           0.85505033E-01          -0.23492316E+00           0.00000000E+00           0.10000000E+01           0.52680203E+01
          -0.85505033E-01           0.23492316E+00           0.17100000E+02           0.10000000E+01           0.45752239E+01
          -0.43412047E-01           0.24620194E+00           0.16200000E+02           0.10000000E+01           0.44358068E+01
           0.15308085E-16           0.25000000E+00           0.15300000E+02           0.10000000E+01           0.43816154E+01
           0.43412047E-01           0.24620194E+00           0.14400001E+02           0.10000000E+01           0.44605736E+01
           0.85505033E-01           0.23492316E+00           0.13500000E+02           0.10000000E+01           0.46417389E+01
           0.12500000E+00           0.21650635E+00           0.12600000E+02           0.10000000E+01           0.48948333E+01
           0.16069690E+00           0.19151110E+00           0.11700000E+02           0.10000000E+01           0.50907639E+01
           0.19151110E+00           0.16069690E+00           0.10800000E+02           0.10000000E+01           0.50854932E+01
           0.21650635E+00           0.12500000E+00           0.99000001E+01           0.10000000E+01           0.48852926E+01
           0.23492316E+00           0.85505033E-01           0.89999998E+01           0.10000000E+01           0.46315381E+01
           0.24620194E+00           0.43412047E-01           0.81000000E+01           0.10000000E+01           0.44465063E+01
           0.25000000E+00           0.00000000E+00           0.72000003E+01           0.10000000E+01           0.43842866E+01
           0.24620194E+00          -0.43412047E-01           0.63000000E+01           0.10000000E+01           0.44540204E+01
           0.23492316E+00          -0.85505033E-01           0.54000002E+01           0.10000000E+01           0.46432632E+01
           0.21650635E+00          -0.12500000E+00           0.44999999E+01           0.10000000E+01           0.48935698E+01
           0.19151110E+00          -0.16069690E+00           0.36000001E+01           0.10000000E+01           0.50876340E+01
           0.16069690E+00          -0.19151110E+00           0.27000001E+01           0.10000000E+01           0.50911614E+01
           0.12500000E+00          -0.21650635E+00           0.18000001E+01           0.10000000E+01           0.48947738E+01
           0.85505033E-01          -0.23492316E+00           0.90000004E+00           0.10000000E+01           0.45821446E+01
           0.43412047E-01          -0.24620194E+00           0.00000000E+00           0.10000000E+01           0.55263764E+01
          -0.43412047E-01           0.24620194E+00           0.17100000E+02           0.10000000E+01           0.43914062E+01
           0.15308085E-16           0.25000000E+00           0.16200000E+02           0.10000000E+01           0.43696087E+01
           0.43412047E-01           0.24620194E+00           0.15300000E+02           0.10000000E+01           0.44513564E+01
           0.85505033E-01           0.23492316E+00           0.14400001E+02           0.10000000E+01           0.46513955E+01
           0.12500000E+00           0.21650635E+00           0.13500000E+02           0.10000000E+01           0.48967096E+01
           0.16069690E+00           0.19151110E+00           0.12600000E+02           0.10000000E+01           0.50981283E+01
           0.19151110E+00           0.16069690E+00           0.11700000E+02           0.10000000E+01           0.50969488E+01
           0.21650635E+00           0.12500000E+00           0.10800000E+02           0.10000000E+01           0.48869396E+01
           0.23492316E+00           0.85505033E-01           0.99000001E+01           0.10000000E+01           0.46304935E+01
           0.24620194E+00           0.43412047E-01           0.89999998E+01           0.10000000E+01           0.44403287E+01
           0.25000000E+00           0.00000000E+00           0.81000000E+01           0.10000000E+01           0.43862062E+01
           0.24620194E+00          -0.43412047E-01           0.72000003E+01           0.10000000E+01           0.44546812E+01
           0.23492316E+00          -0.85505033E-01           0.63000000E+01           0.10000000E+01           0.46476582E+01
           0.21650635E+00          -0.12500000E+00           0.54000002E+01           0.10000000E+01           0.48987032E+01
           0.19151110E+00          -0.16069690E+00           0.44999999E+01           0.10000000E+01           0.50896852E+01
           0.16069690E+00          -0.19151110E+00           0.36000001E+01           0.10000000E+01           0.50867760E+01
           0.12500000E+00          -0.21650635E+00           0.27000001E+01           0.10000000E+01           0.48928357E+01
           0.85505033E-01          -0.23492316E+00           0.18000001E+01           0.10000000E+01           0.46398500E+01
           0.43412047E-01          -0.24620194E+00           0.90000004E+00           0.10000000E+01           0.43932734E+01
           0.15308085E-16          -0.25000000E+00           0.00000000E+00           0.10000000E+01           0.51271694E+01
           0.15308085E-16           0.25000000E+00           0.17100000E+02           0.10000000E+01           0.43352097E+01
           0.43412047E-01           0.24620194E+00           0.16200000E+02           0.10000000E+01           0.44382811E+01
           0.85505033E-01           0.23492316E+00           0.15300000E+02           0.10000000E+01           0.46424087E+01
           0.12500000E+00           0.21650635E+00           0.14400001E+02           0.10000000E+01           0.49063830E+01
           0.16069690E+00           0.19151110E+00           0.13500000E+02           0.10000000E+01           0.50957511E+01
           0.19151110E+00           0.16069690E+00           0.12600000E+02           0.10000000E+01           0.51049950E+01
           0.21650635E+00           0.12500000E+00           0.11700000E+02           0.10000000E+01           0.49016838E+01
           0.23492316E+00           0.85505033E-01           0.10800000E+02           0.10000000E+01           0.46319448E+01
           0.24620194E+00           0.43412047E-01           0.99000001E+01           0.10000000E+01           0.44395680E+01
           0.25000000E+00           0.00000000E+00           0.89999998E+01           0.10000000E+01           0.43797026E+01
           0.24620194E+00          -0.43412047E-01           0.81000000E+01           0.10000000E+01           0.44617471E+01
           0.23492316E+00          -0.85505033E-01           0.72000003E+01           0.10000000E+01           0.46474807E+01
           0.21650635E+00          -0.12500000E+00           0.63000000E+01           0.10000000E+01           0.49032110E+01
           0.19151110E+00          -0.16069690E+00           0.54000002E+01           0.10000000E+01           0.50972504E+01
           0.16069690E+00          -0.19151110E+00           0.44999999E+01           0.10000000E+01           0.50892131E+01
           0.12500000E+00          -0.21650635E+00           0.36000001E+01           0.10000000E+01           0.48898216E+01
           0.85505033E-01          -0.23492316E+00           0.27000001E+01           0.10000000E+01           0.46376540E+01
           0.43412047E-01          -0.24620194E+00           0.18000001E+01           0.10000000E+01           0.44469572E+01
           0.15308085E-16          -0.25000000E+00           0.90000004E+00           0.10000000E+01           0.43097169E+01
          -0.43412047E-01          -0.24620194E+00           0.00000000E+00           0.10000000E+01           0.55280423E+01
           0.43412047E-01           0.24620194E+00           0.17100000E+02           0.10000000E+01           0.44148810E+01
           0.85505033E-01           0.23492316E+00           0.16200000E+02           0.10000000E+01           0.46293898E+01
           0.12500000E+00           0.21650635E+00           0.15300000E+02           0.10000000E+01           0.48975394E+01
           0.16069690E+00           0.19151110E+00           0.14400001E+02           0.10000000E+01           0.51024571E+01
           0.19151110E+00           0.16069690E+00           0.13500000E+02           0.10000000E+01           0.50949352E+01
           0.21650635E+00           0.12500000E+00           0.12600000E+02           0.10000000E+01           0.49085251E+01
           0.23492316E+00           0.85505033E-01           0.11700000E+02           0.10000000E+01           0.46462472E+01
           0.24620194E+00           0.43412047E-01           0.10800000E+02           0.10000000E+01           0.44409276E+01
           0.25000000E+00           0.00000000E+00           0.99000001E+01           0.10000000E+01           0.43729148E+01
           0.24620194E+00          -0.43412047E-01           0.89999998E+01           0.10000000E+01           0.44499130E+01
           0.23492316E+00          -0.85505033E-01           0.81000000E+01           0.10000000E+01           0.46538945E+01
           0.21650635E+00          -0.12500000E+00           0.72000003E+01           0.10000000E+01           0.49025751E+01
           0.19151110E+00          -0.16069690E+00           0.63000000E+01           0.10000000E+01           0.51041857E+01
           0.16069690E+00          -0.19151110E+00           0.54000002E+01           0.10000000E+01           0.51023039E+01
           0.12500000E+00          -0.21650635E+00           0.44999999E+01           0.10000000E+01           0.48920589E+01
           0.85505033E-01          -0.23492316E+00           0.36000001E+01           0.10000000E+01           0.46349169E+01
           0.43412047E-01          -0.24620194E+00           0.27000001E+01           0.10000000E+01           0.44448360E+01
           0.15308085E-16          -0.25000000E+00           0.18000001E+01           0.10000000E+01           0.43826361E+01
          -0.43412047E-01          -0.24620194E+00           0.90000004E+00           0.10000000E+01           0.43661941E+01
          -0.85505033E-01          -0.23492316E+00           0.00000000E+00           0.10000000E+01           0.48498362E+01